/*--------------------------------*- C++ -*----------------------------------*\
| =========                 |                                                 |
| \\      /  F ield         | OpenFOAM: The Open Source CFD Toolbox           |
|  \\    /   O peration     | Version:  2.3.1                                 |
|   \\  /    A nd           | Web:      www.OpenFOAM.org                      |
|    \\/     M anipulation  |                                                 |
\*---------------------------------------------------------------------------*/
FoamFile
{
    version     2.0;
    format      ascii;
    class       volScalarField;
    location    "0";
    object      rho2;
}
// * * * * * * * * * * * * * * * * * * * * * * * * * * * * * * * * * * * * * //

dimensions      [1 -3 0 0 0 0 0];

internalField   nonuniform List<scalar> 
200000
(
848.34
847.509
846.645
845.747
844.81
843.831
842.804
841.725
840.585
839.377
838.091
836.713
835.227
833.609
831.831
829.848
827.595
824.967
821.777
817.621
811.305
796.942
812.569
818.372
822.331
825.414
827.973
830.178
832.125
833.876
835.471
836.939
838.302
839.575
840.772
841.902
842.973
843.992
844.965
845.895
846.788
847.647
848.474
849.272
850.043
850.79
851.514
852.217
852.899
853.563
848.226
847.394
846.531
845.632
844.695
843.714
842.686
841.605
840.463
839.252
837.962
836.579
835.086
833.461
831.672
829.675
827.403
824.746
821.509
817.264
810.695
799.778
813.055
818.664
822.543
825.582
828.112
830.296
832.228
833.967
835.552
837.013
838.369
839.637
840.828
841.954
843.022
844.038
845.007
845.936
846.826
847.683
848.508
849.305
850.075
850.82
851.543
852.244
852.926
853.589
847.996
847.165
846.301
845.402
844.463
843.481
842.45
841.365
840.218
839.001
837.702
836.309
834.804
833.162
831.351
829.325
827.012
824.295
820.959
816.519
809.355
803.282
813.963
819.226
822.956
825.91
828.384
830.529
832.431
834.146
835.713
837.158
838.501
839.758
840.941
842.058
843.119
844.128
845.093
846.016
846.902
847.755
848.577
849.37
850.137
850.88
851.6
852.299
852.979
853.64
847.65
846.82
845.956
845.055
844.114
843.128
842.093
841.001
839.847
838.62
837.309
835.9
834.374
832.707
830.862
828.789
826.411
823.596
820.094
815.316
806.931
806.646
815.198
820.024
823.553
826.388
828.783
830.871
832.73
834.411
835.951
837.373
838.698
839.939
841.107
842.213
843.263
844.264
845.22
846.136
847.016
847.862
848.679
849.467
850.23
850.969
851.686
852.382
853.058
853.717
847.187
846.357
845.492
844.59
843.645
842.655
841.613
840.512
839.347
838.105
836.777
835.345
833.791
832.086
830.192
828.052
825.578
822.616
818.857
813.504
802.116
809.743
816.656
821.012
824.307
827
829.297
831.314
833.119
834.757
836.262
837.656
838.956
840.176
841.327
842.417
843.453
844.442
845.387
846.294
847.165
848.005
848.814
849.596
850.353
851.087
851.799
852.491
853.163
853.818
846.605
845.775
844.909
844.003
843.054
842.056
841.005
839.893
838.711
837.451
836.098
834.636
833.042
831.286
829.324
827.091
824.48
821.3
817.139
810.749
798.46
812.588
818.252
822.147
825.193
827.727
829.914
831.849
833.59
835.178
836.641
838.001
839.272
840.467
841.597
842.668
843.688
844.662
845.594
846.49
847.35
848.18
848.981
849.756
850.506
851.233
851.94
852.626
853.294
853.944
845.901
845.07
844.201
843.29
842.334
841.327
840.263
839.135
837.934
836.648
835.263
833.76
832.113
830.288
828.234
825.87
823.063
819.555
814.731
806.037
807.083
815.215
819.92
823.386
826.182
828.551
830.619
832.464
834.135
835.667
837.084
838.404
839.642
840.809
841.914
842.963
843.964
844.921
845.839
846.721
847.57
848.388
849.18
849.945
850.687
851.407
852.107
852.787
853.449
854.094
845.071
844.238
843.364
842.447
841.481
840.461
839.38
838.231
837.003
835.683
834.256
832.698
830.982
829.064
826.882
824.333
821.237
817.211
811.135
794.209
811.812
817.654
821.615
824.695
827.25
829.452
831.398
833.149
834.746
836.216
837.583
838.86
840.062
841.197
842.275
843.301
844.28
845.219
846.119
846.986
847.821
848.628
849.408
850.164
850.896
851.608
852.3
852.973
853.629
854.268
844.11
843.272
842.391
841.463
840.484
839.447
838.344
837.167
835.904
834.54
833.056
831.427
829.616
827.57
825.208
822.39
818.844
813.897
804.493
807.88
815.408
819.933
823.307
826.045
828.374
830.414
832.238
833.893
835.412
836.819
838.132
839.365
840.527
841.629
842.677
843.677
844.633
845.551
846.433
847.283
848.104
848.897
849.665
850.409
851.132
851.834
852.517
853.183
853.831
854.464
843.008
842.163
841.272
840.33
839.333
838.272
837.14
835.925
834.616
833.193
831.634
829.907
827.966
825.741
823.116
819.879
815.55
808.505
803.032
813.286
818.417
822.072
824.976
827.416
829.536
831.422
833.126
834.685
836.126
837.468
838.726
839.911
841.033
842.099
843.116
844.088
845.02
845.916
846.779
847.611
848.415
849.194
849.949
850.681
851.393
852.085
852.759
853.416
854.057
854.682
841.755
840.899
839.993
839.032
838.01
836.917
835.746
834.482
833.11
831.607
829.946
828.084
825.958
823.466
820.429
816.462
810.428
795.575
811.468
817.164
821.052
824.086
826.61
828.79
830.72
832.46
834.049
835.515
836.878
838.155
839.357
840.494
841.575
842.604
843.588
844.532
845.438
846.311
847.153
847.967
848.754
849.517
850.258
850.978
851.678
852.359
853.023
853.671
854.304
854.922
840.335
839.463
838.536
837.548
836.491
835.356
834.131
832.8
831.342
829.73
827.924
825.865
823.46
820.543
816.774
811.207
795.717
810.212
816.287
820.312
823.419
825.989
828.201
830.155
831.914
833.519
834.998
836.374
837.661
838.873
840.02
841.109
842.147
843.139
844.091
845.005
845.885
846.734
847.554
848.348
849.118
849.865
850.591
851.297
851.985
852.655
853.309
853.948
854.571
855.181
838.726
837.83
836.874
835.848
834.744
833.55
832.251
830.825
829.247
827.476
825.456
823.093
820.227
816.525
811.073
796.633
809.786
815.887
819.912
823.015
825.582
827.791
829.744
831.502
833.107
834.587
835.964
837.253
838.468
839.617
840.709
841.75
842.746
843.701
844.619
845.503
846.356
847.181
847.979
848.754
849.505
850.236
850.947
851.639
852.314
852.972
853.616
854.244
854.859
855.46
836.895
835.966
834.967
833.889
832.718
831.44
830.035
828.473
826.715
824.701
822.335
819.445
815.672
809.98
790.724
810.306
816.018
819.886
822.901
825.41
827.579
829.502
831.238
832.825
834.292
835.658
836.939
838.147
839.292
840.38
841.419
842.413
843.367
844.285
845.17
846.024
846.85
847.65
848.426
849.18
849.914
850.627
851.323
852.001
852.663
853.309
853.941
854.559
855.165
855.757
834.797
833.819
832.758
831.602
830.335
828.933
827.368
825.595
823.549
821.12
818.11
814.074
807.541
801.365
811.644
816.665
820.239
823.085
825.483
827.574
829.438
831.129
832.68
834.119
835.462
836.724
837.917
839.049
840.127
841.157
842.145
843.093
844.007
844.888
845.739
846.564
847.363
848.139
848.893
849.626
850.341
851.038
851.717
852.381
853.03
853.664
854.285
854.893
855.488
856.072
832.358
831.306
830.153
828.879
827.462
825.865
824.039
821.903
819.324
816.032
811.359
802.033
806.698
813.529
817.751
820.942
823.557
825.798
827.776
829.555
831.179
832.678
834.073
835.38
836.613
837.782
838.893
839.953
840.969
841.944
842.882
843.786
844.66
845.506
846.325
847.12
847.893
848.644
849.376
850.09
850.786
851.465
852.129
852.778
853.414
854.036
854.645
855.242
855.828
856.403
829.459
828.29
826.987
825.521
823.849
821.906
819.584
816.684
812.761
806.3
801.388
810.892
815.706
819.167
821.939
824.285
826.339
828.177
829.848
831.386
832.816
834.154
835.415
836.608
837.742
838.825
839.861
840.856
841.812
842.735
843.626
844.489
845.324
846.136
846.924
847.69
848.437
849.165
849.875
850.568
851.246
851.908
852.556
853.191
853.813
854.423
855.021
855.608
856.184
856.75
825.876
824.503
822.933
821.104
818.918
816.196
812.548
806.745
798.407
809.494
814.482
818.002
820.802
823.165
825.231
827.078
828.758
830.305
831.744
833.091
834.36
835.563
836.707
837.8
838.846
839.851
840.819
841.752
842.654
843.528
844.375
845.197
845.996
846.774
847.532
848.271
848.993
849.697
850.386
851.059
851.719
852.365
852.998
853.618
854.227
854.824
855.411
855.987
856.554
857.11
821.122
819.323
817.143
814.379
810.56
803.956
801.925
809.988
814.418
817.672
820.313
822.569
824.557
826.348
827.985
829.499
830.911
832.239
833.494
834.685
835.821
836.909
837.952
838.955
839.923
840.858
841.763
842.64
843.492
844.319
845.124
845.909
846.673
847.42
848.148
848.861
849.558
850.24
850.908
851.562
852.204
852.833
853.451
854.058
854.653
855.239
855.814
856.38
856.937
857.484
813.645
810.364
805.128
796.392
807.384
812.172
815.559
818.267
820.565
822.583
824.399
826.057
827.592
829.024
830.371
831.645
832.857
834.012
835.119
836.183
837.206
838.194
839.149
840.074
840.972
841.843
842.691
843.516
844.321
845.106
845.872
846.62
847.352
848.068
848.77
849.457
850.13
850.79
851.438
852.074
852.699
853.312
853.915
854.508
855.091
855.665
856.229
856.785
857.332
857.871
803.377
808.864
812.461
815.266
817.622
819.682
821.531
823.221
824.784
826.245
827.621
828.924
830.164
831.35
832.486
833.58
834.634
835.652
836.638
837.593
838.521
839.423
840.301
841.157
841.991
842.806
843.601
844.379
845.14
845.885
846.615
847.33
848.031
848.719
849.394
850.057
850.708
851.347
851.976
852.594
853.202
853.8
854.389
854.969
855.539
856.101
856.655
857.201
857.739
858.269
817.001
818.666
820.223
821.691
823.083
824.411
825.681
826.902
828.078
829.213
830.311
831.375
832.409
833.413
834.39
835.342
836.27
837.176
838.061
838.925
839.771
840.598
841.409
842.203
842.981
843.744
844.492
845.227
845.948
846.656
847.352
848.036
848.708
849.369
850.019
850.659
851.289
851.909
852.519
853.12
853.712
854.296
854.871
855.437
855.996
856.547
857.091
857.627
858.156
858.678
823.066
824.058
825.047
826.031
827.007
827.974
828.931
829.875
830.807
831.727
832.633
833.525
834.404
835.27
836.122
836.961
837.786
838.599
839.398
840.185
840.96
841.723
842.473
843.213
843.94
844.657
845.362
846.057
846.742
847.416
848.081
848.736
849.381
850.017
850.644
851.262
851.872
852.473
853.066
853.651
854.228
854.797
855.359
855.914
856.461
857.001
857.535
858.062
858.582
859.096
827.264
827.95
828.658
829.383
830.121
830.869
831.625
832.386
833.149
833.914
834.679
835.442
836.202
836.958
837.71
838.457
839.197
839.931
840.659
841.379
842.093
842.798
843.496
844.187
844.87
845.544
846.211
846.87
847.521
848.165
848.8
849.428
850.049
850.661
851.267
851.865
852.455
853.039
853.615
854.185
854.748
855.304
855.853
856.396
856.932
857.463
857.987
858.505
859.017
859.523
830.531
831.04
831.576
832.136
832.718
833.318
833.935
834.564
835.204
835.854
836.51
837.172
837.838
838.506
839.176
839.846
840.515
841.183
841.849
842.512
843.172
843.827
844.479
845.126
845.769
846.406
847.038
847.664
848.285
848.9
849.509
850.112
850.709
851.3
851.886
852.465
853.038
853.605
854.166
854.721
855.27
855.814
856.351
856.883
857.41
857.93
858.445
858.955
859.459
859.958
833.223
833.614
834.034
834.48
834.952
835.445
835.958
836.489
837.035
837.594
838.165
838.746
839.336
839.932
840.534
841.14
841.749
842.361
842.973
843.587
844.2
844.812
845.423
846.032
846.638
847.241
847.842
848.439
849.032
849.621
850.206
850.786
851.362
851.933
852.5
853.061
853.618
854.17
854.717
855.258
855.795
856.327
856.853
857.375
857.891
858.403
858.909
859.411
859.908
860.4
835.517
835.823
836.158
836.521
836.91
837.323
837.757
838.211
838.683
839.171
839.674
840.189
840.716
841.252
841.797
842.349
842.907
843.471
844.038
844.608
845.18
845.754
846.329
846.903
847.478
848.051
848.623
849.193
849.761
850.327
850.89
851.449
852.006
852.559
853.108
853.654
854.195
854.733
855.266
855.796
856.321
856.841
857.358
857.869
858.377
858.88
859.379
859.873
860.363
860.848
837.512
837.755
838.027
838.326
838.652
839.001
839.373
839.766
840.179
840.609
841.056
841.517
841.992
842.478
842.975
843.482
843.996
844.518
845.045
845.578
846.115
846.655
847.198
847.742
848.288
848.835
849.381
849.927
850.473
851.017
851.56
852.101
852.64
853.176
853.71
854.24
854.768
855.293
855.814
856.332
856.846
857.357
857.863
858.366
858.865
859.361
859.852
860.339
860.823
861.302
839.274
839.468
839.691
839.94
840.215
840.514
840.836
841.18
841.545
841.927
842.328
842.744
843.175
843.62
844.076
844.544
845.021
845.507
846
846.5
847.006
847.516
848.031
848.549
849.07
849.592
850.116
850.641
851.166
851.692
852.216
852.74
853.263
853.784
854.304
854.821
855.336
855.849
856.359
856.866
857.371
857.872
858.37
858.865
859.356
859.844
860.329
860.81
861.287
861.761
840.846
841.002
841.185
841.394
841.628
841.887
842.169
842.472
842.797
843.14
843.502
843.881
844.276
844.684
845.107
845.541
845.986
846.441
846.905
847.376
847.855
848.34
848.83
849.324
849.823
850.324
850.828
851.334
851.841
852.349
852.858
853.367
853.875
854.383
854.889
855.395
855.898
856.4
856.9
857.398
857.893
858.386
858.876
859.364
859.848
860.33
860.808
861.283
861.755
862.224
842.259
842.383
842.534
842.711
842.913
843.138
843.387
843.657
843.948
844.259
844.589
844.936
845.3
845.679
846.072
846.477
846.895
847.323
847.762
848.209
848.664
849.127
849.595
850.069
850.548
851.031
851.517
852.006
852.497
852.99
853.485
853.98
854.475
854.971
855.466
855.961
856.454
856.947
857.437
857.927
858.414
858.899
859.382
859.863
860.341
860.817
861.29
861.76
862.227
862.691
843.535
843.634
843.759
843.909
844.084
844.282
844.503
844.746
845.01
845.294
845.596
845.917
846.255
846.608
846.976
847.357
847.752
848.157
848.574
849
849.435
849.878
850.328
850.784
851.246
851.712
852.183
852.657
853.135
853.614
854.096
854.579
855.064
855.548
856.033
856.518
857.003
857.487
857.97
858.451
858.932
859.41
859.887
860.362
860.834
861.305
861.773
862.238
862.701
863.161
844.692
844.771
844.874
845.003
845.155
845.33
845.528
845.748
845.989
846.251
846.531
846.829
847.145
847.476
847.823
848.185
848.559
848.945
849.343
849.751
850.169
850.595
851.029
851.469
851.916
852.369
852.826
853.288
853.753
854.221
854.692
855.165
855.639
856.115
856.591
857.068
857.544
858.021
858.497
858.972
859.446
859.918
860.39
860.859
861.327
861.793
862.256
862.718
863.177
863.633
845.743
845.805
845.891
846.001
846.135
846.292
846.471
846.672
846.894
847.136
847.398
847.677
847.975
848.288
848.618
848.961
849.319
849.689
850.071
850.464
850.866
851.278
851.699
852.126
852.561
853.001
853.447
853.898
854.353
854.811
855.272
855.736
856.202
856.67
857.138
857.608
858.078
858.548
859.018
859.487
859.956
860.423
860.89
861.355
861.819
862.28
862.74
863.198
863.654
864.108
846.699
846.747
846.818
846.914
847.033
847.174
847.338
847.523
847.73
847.956
848.202
848.466
848.748
849.047
849.361
849.691
850.034
850.391
850.759
851.139
851.53
851.93
852.338
852.755
853.179
853.61
854.046
854.487
854.933
855.384
855.837
856.293
856.752
857.213
857.675
858.139
858.603
859.068
859.532
859.997
860.461
860.925
861.387
861.849
862.309
862.768
863.225
863.68
864.133
864.584
847.568
847.605
847.665
847.748
847.854
847.983
848.134
848.307
848.501
848.714
848.947
849.199
849.468
849.755
850.057
850.375
850.707
851.052
851.41
851.779
852.16
852.55
852.949
853.357
853.772
854.194
854.623
855.057
855.496
855.939
856.386
856.836
857.289
857.744
858.201
858.66
859.12
859.58
860.041
860.501
860.962
861.422
861.882
862.34
862.797
863.254
863.708
864.161
864.612
865.061
848.358
848.385
848.436
848.509
848.606
848.725
848.866
849.028
849.211
849.414
849.637
849.879
850.138
850.415
850.707
851.016
851.338
851.675
852.024
852.385
852.757
853.139
853.531
853.932
854.34
854.756
855.178
855.606
856.039
856.477
856.919
857.364
857.813
858.264
858.717
859.171
859.627
860.084
860.542
861
861.458
861.915
862.372
862.828
863.284
863.738
864.191
864.642
865.092
865.54
849.074
849.094
849.137
849.203
849.291
849.402
849.535
849.689
849.864
850.06
850.274
850.508
850.76
851.029
851.314
851.615
851.93
852.26
852.602
852.957
853.323
853.699
854.085
854.48
854.884
855.294
855.712
856.135
856.564
856.998
857.436
857.878
858.323
858.771
859.221
859.673
860.126
860.581
861.036
861.492
861.948
862.404
862.859
863.314
863.768
864.22
864.672
865.122
865.571
866.018
849.721
849.735
849.773
849.832
849.915
850.02
850.147
850.295
850.464
850.653
850.862
851.09
851.335
851.599
851.879
852.174
852.484
852.809
853.147
853.497
853.858
854.23
854.612
855.003
855.403
855.81
856.224
856.645
857.071
857.502
857.938
858.377
858.82
859.266
859.714
860.164
860.616
861.069
861.523
861.978
862.432
862.887
863.341
863.795
864.249
864.701
865.152
865.602
866.05
866.496
850.304
850.313
850.346
850.402
850.48
850.58
850.703
850.847
851.011
851.196
851.401
851.625
851.867
852.127
852.403
852.695
853.002
853.323
853.658
854.005
854.363
854.733
855.113
855.502
855.899
856.304
856.716
857.135
857.56
857.989
858.424
858.862
859.304
859.748
860.196
860.645
861.096
861.549
862.002
862.456
862.911
863.365
863.82
864.273
864.726
865.179
865.63
866.079
866.528
866.975
850.824
850.831
850.861
850.914
850.989
851.087
851.206
851.347
851.51
851.692
851.895
852.116
852.356
852.613
852.888
853.178
853.483
853.803
854.136
854.482
854.84
855.208
855.587
855.975
856.372
856.776
857.188
857.606
858.031
858.46
858.894
859.332
859.774
860.219
860.666
861.116
861.567
862.02
862.474
862.929
863.383
863.838
864.293
864.747
865.201
865.654
866.105
866.556
867.005
867.452
851.286
851.291
851.32
851.371
851.444
851.541
851.659
851.799
851.96
852.142
852.344
852.565
852.804
853.061
853.335
853.625
853.93
854.25
854.584
854.93
855.288
855.656
856.036
856.424
856.822
857.227
857.64
858.059
858.484
858.914
859.349
859.789
860.231
860.677
861.126
861.577
862.029
862.483
862.938
863.394
863.85
864.306
864.762
865.217
865.672
866.126
866.579
867.03
867.48
867.929
851.692
851.696
851.724
851.775
851.848
851.945
852.063
852.203
852.365
852.547
852.75
852.971
853.212
853.47
853.745
854.037
854.344
854.665
855
855.348
855.708
856.078
856.46
856.85
857.25
857.657
858.072
858.493
858.92
859.352
859.789
860.231
860.676
861.123
861.574
862.027
862.481
862.937
863.394
863.852
864.31
864.767
865.225
865.682
866.139
866.595
867.049
867.503
867.954
868.405
852.043
852.048
852.076
852.128
852.202
852.3
852.42
852.562
852.725
852.909
853.114
853.338
853.581
853.842
854.12
854.414
854.724
855.049
855.387
855.738
856.1
856.475
856.859
857.253
857.655
858.066
858.484
858.908
859.339
859.774
860.214
860.659
861.107
861.558
862.011
862.467
862.924
863.383
863.842
864.302
864.763
865.223
865.684
866.143
866.602
867.06
867.517
867.973
868.427
868.879
852.342
852.348
852.378
852.431
852.508
852.608
852.73
852.875
853.042
853.229
853.438
853.666
853.912
854.177
854.46
854.758
855.072
855.401
855.744
856.099
856.467
856.845
857.234
857.633
858.04
858.455
858.877
859.306
859.74
860.18
860.625
861.073
861.525
861.98
862.437
862.896
863.357
863.82
864.283
864.746
865.21
865.674
866.137
866.6
867.062
867.522
867.982
868.44
868.897
869.352
852.59
852.598
852.63
852.686
852.766
852.869
852.996
853.145
853.316
853.508
853.721
853.954
854.207
854.477
854.765
855.069
855.389
855.724
856.072
856.434
856.807
857.191
857.586
857.99
858.403
858.824
859.251
859.686
860.126
860.571
861.02
861.474
861.93
862.39
862.852
863.316
863.781
864.248
864.715
865.183
865.65
866.118
866.585
867.051
867.517
867.981
868.444
868.905
869.365
869.823
852.787
852.798
852.833
852.893
852.977
853.086
853.217
853.372
853.548
853.747
853.966
854.206
854.464
854.742
855.036
855.348
855.675
856.017
856.372
856.741
857.121
857.513
857.915
858.326
858.746
859.173
859.607
860.048
860.494
860.946
861.401
861.861
862.323
862.788
863.256
863.725
864.196
864.667
865.139
865.612
866.084
866.556
867.027
867.498
867.967
868.436
868.902
869.367
869.831
870.292
852.935
852.949
852.989
853.054
853.143
853.257
853.395
853.556
853.74
853.945
854.172
854.42
854.687
854.972
855.275
855.595
855.93
856.281
856.645
857.022
857.411
857.811
858.221
858.64
859.068
859.503
859.945
860.393
860.847
861.305
861.768
862.234
862.704
863.175
863.649
864.124
864.601
865.078
865.556
866.034
866.511
866.988
867.465
867.94
868.414
868.886
869.357
869.827
870.294
870.759
853.034
853.053
853.098
853.169
853.264
853.385
853.53
853.699
853.891
854.105
854.341
854.597
854.873
855.168
855.481
855.81
856.156
856.516
856.89
857.277
857.675
858.085
858.504
858.933
859.369
859.814
860.265
860.722
861.184
861.65
862.121
862.595
863.072
863.551
864.032
864.514
864.997
865.481
865.965
866.448
866.932
867.415
867.896
868.377
868.856
869.333
869.809
870.283
870.755
871.224
853.085
853.11
853.16
853.238
853.341
853.469
853.623
853.8
854.002
854.226
854.471
854.738
855.025
855.331
855.655
855.995
856.352
856.723
857.108
857.506
857.915
858.335
858.766
859.205
859.652
860.106
860.567
861.033
861.505
861.98
862.46
862.943
863.428
863.915
864.404
864.893
865.384
865.875
866.366
866.856
867.346
867.835
868.322
868.809
869.293
869.776
870.257
870.736
871.213
871.687
848.34
847.509
846.645
845.747
844.81
843.831
842.804
841.725
840.585
839.377
838.091
836.713
835.227
833.609
831.831
829.848
827.595
824.967
821.777
817.621
811.305
796.942
812.569
818.372
822.331
825.414
827.973
830.178
832.125
833.876
835.471
836.939
838.302
839.575
840.772
841.902
842.973
843.992
844.965
845.895
846.788
847.647
848.474
849.272
850.043
850.79
851.514
852.217
852.899
853.563
848.226
847.394
846.531
845.632
844.695
843.714
842.686
841.605
840.463
839.252
837.962
836.579
835.086
833.461
831.672
829.675
827.403
824.746
821.509
817.264
810.695
799.778
813.055
818.664
822.543
825.582
828.112
830.296
832.228
833.967
835.552
837.013
838.369
839.637
840.828
841.954
843.022
844.038
845.007
845.936
846.826
847.683
848.508
849.305
850.075
850.82
851.543
852.244
852.926
853.589
847.996
847.165
846.301
845.402
844.463
843.481
842.45
841.365
840.218
839.001
837.702
836.309
834.804
833.162
831.351
829.325
827.012
824.295
820.959
816.519
809.355
803.282
813.963
819.226
822.956
825.91
828.384
830.529
832.431
834.146
835.713
837.158
838.501
839.758
840.941
842.058
843.119
844.128
845.093
846.016
846.902
847.755
848.577
849.37
850.137
850.88
851.6
852.299
852.979
853.64
847.65
846.82
845.956
845.055
844.114
843.128
842.093
841.001
839.847
838.62
837.309
835.9
834.374
832.707
830.862
828.789
826.411
823.596
820.094
815.316
806.931
806.646
815.198
820.024
823.553
826.388
828.783
830.871
832.73
834.411
835.951
837.373
838.698
839.939
841.107
842.213
843.263
844.264
845.22
846.136
847.016
847.862
848.679
849.467
850.23
850.969
851.686
852.382
853.058
853.717
847.187
846.357
845.492
844.59
843.645
842.655
841.613
840.512
839.347
838.105
836.777
835.345
833.791
832.086
830.192
828.052
825.578
822.616
818.857
813.504
802.116
809.743
816.656
821.012
824.307
827
829.297
831.314
833.119
834.757
836.262
837.656
838.956
840.176
841.327
842.417
843.453
844.442
845.387
846.294
847.165
848.005
848.814
849.596
850.353
851.087
851.799
852.491
853.163
853.818
846.605
845.775
844.909
844.003
843.054
842.056
841.005
839.893
838.711
837.451
836.098
834.636
833.042
831.286
829.324
827.091
824.48
821.3
817.139
810.749
798.46
812.588
818.252
822.147
825.193
827.727
829.914
831.849
833.59
835.178
836.641
838.001
839.272
840.467
841.597
842.668
843.688
844.662
845.594
846.49
847.35
848.18
848.981
849.756
850.506
851.233
851.94
852.626
853.294
853.944
845.901
845.07
844.201
843.29
842.334
841.327
840.263
839.135
837.934
836.648
835.263
833.76
832.113
830.288
828.234
825.87
823.063
819.555
814.731
806.037
807.083
815.215
819.92
823.386
826.182
828.551
830.619
832.464
834.135
835.667
837.084
838.404
839.642
840.809
841.914
842.963
843.964
844.921
845.839
846.721
847.57
848.388
849.18
849.945
850.687
851.407
852.107
852.787
853.449
854.094
845.071
844.238
843.364
842.447
841.481
840.461
839.38
838.231
837.003
835.683
834.256
832.698
830.982
829.064
826.882
824.333
821.237
817.211
811.135
794.209
811.812
817.654
821.615
824.695
827.25
829.452
831.398
833.149
834.746
836.216
837.583
838.86
840.062
841.197
842.275
843.301
844.28
845.219
846.119
846.986
847.821
848.628
849.408
850.164
850.896
851.608
852.3
852.973
853.629
854.268
844.11
843.272
842.391
841.463
840.484
839.447
838.344
837.167
835.904
834.54
833.056
831.427
829.616
827.57
825.208
822.39
818.844
813.897
804.493
807.88
815.408
819.933
823.307
826.045
828.374
830.414
832.238
833.893
835.412
836.819
838.132
839.365
840.527
841.629
842.677
843.677
844.633
845.551
846.433
847.283
848.104
848.897
849.665
850.409
851.132
851.834
852.517
853.183
853.831
854.464
843.008
842.163
841.272
840.33
839.333
838.272
837.14
835.925
834.616
833.193
831.634
829.907
827.966
825.741
823.116
819.879
815.55
808.505
803.032
813.286
818.417
822.072
824.976
827.416
829.536
831.422
833.126
834.685
836.126
837.468
838.726
839.911
841.033
842.099
843.116
844.088
845.02
845.916
846.779
847.611
848.415
849.194
849.949
850.681
851.393
852.085
852.759
853.416
854.057
854.682
841.755
840.899
839.993
839.032
838.01
836.917
835.746
834.482
833.11
831.607
829.946
828.084
825.958
823.466
820.429
816.462
810.428
795.575
811.468
817.164
821.052
824.086
826.61
828.79
830.72
832.46
834.049
835.515
836.878
838.155
839.357
840.494
841.575
842.604
843.588
844.532
845.438
846.311
847.153
847.967
848.754
849.517
850.258
850.978
851.678
852.359
853.023
853.671
854.304
854.922
840.335
839.463
838.536
837.548
836.491
835.356
834.131
832.8
831.342
829.73
827.924
825.865
823.46
820.543
816.774
811.207
795.717
810.212
816.287
820.312
823.419
825.989
828.201
830.155
831.914
833.519
834.998
836.374
837.661
838.873
840.02
841.109
842.147
843.139
844.091
845.005
845.885
846.734
847.554
848.348
849.118
849.865
850.591
851.297
851.985
852.655
853.309
853.948
854.571
855.181
838.726
837.83
836.874
835.848
834.744
833.55
832.251
830.825
829.247
827.476
825.456
823.093
820.227
816.525
811.073
796.633
809.786
815.887
819.912
823.015
825.582
827.791
829.744
831.502
833.107
834.587
835.964
837.253
838.468
839.617
840.709
841.75
842.746
843.701
844.619
845.503
846.356
847.181
847.979
848.754
849.505
850.236
850.947
851.639
852.314
852.972
853.616
854.244
854.859
855.46
836.895
835.966
834.967
833.889
832.718
831.44
830.035
828.473
826.715
824.701
822.335
819.445
815.672
809.98
790.724
810.306
816.018
819.886
822.901
825.41
827.579
829.502
831.238
832.825
834.292
835.658
836.939
838.147
839.292
840.38
841.419
842.413
843.367
844.285
845.17
846.024
846.85
847.65
848.426
849.18
849.914
850.627
851.323
852.001
852.663
853.309
853.941
854.559
855.165
855.757
834.797
833.819
832.758
831.602
830.335
828.933
827.368
825.595
823.549
821.12
818.11
814.074
807.541
801.365
811.644
816.665
820.239
823.085
825.483
827.574
829.438
831.129
832.68
834.119
835.462
836.724
837.917
839.049
840.127
841.157
842.145
843.093
844.007
844.888
845.739
846.564
847.363
848.139
848.893
849.626
850.341
851.038
851.717
852.381
853.03
853.664
854.285
854.893
855.488
856.072
832.358
831.306
830.153
828.879
827.462
825.865
824.039
821.903
819.324
816.032
811.359
802.033
806.698
813.529
817.751
820.942
823.557
825.798
827.776
829.555
831.179
832.678
834.073
835.38
836.613
837.782
838.893
839.953
840.969
841.944
842.882
843.786
844.66
845.506
846.325
847.12
847.893
848.644
849.376
850.09
850.786
851.465
852.129
852.778
853.414
854.036
854.645
855.242
855.828
856.403
829.459
828.29
826.987
825.521
823.849
821.906
819.584
816.684
812.761
806.3
801.388
810.892
815.706
819.167
821.939
824.285
826.339
828.177
829.848
831.386
832.816
834.154
835.415
836.608
837.742
838.825
839.861
840.856
841.812
842.735
843.626
844.489
845.324
846.136
846.924
847.69
848.437
849.165
849.875
850.568
851.246
851.908
852.556
853.191
853.813
854.423
855.021
855.608
856.184
856.75
825.876
824.503
822.933
821.104
818.918
816.196
812.548
806.745
798.407
809.494
814.482
818.002
820.802
823.165
825.231
827.078
828.758
830.305
831.744
833.091
834.36
835.563
836.707
837.8
838.846
839.851
840.819
841.752
842.654
843.528
844.375
845.197
845.996
846.774
847.532
848.271
848.993
849.697
850.386
851.059
851.719
852.365
852.998
853.618
854.227
854.824
855.411
855.987
856.554
857.11
821.122
819.323
817.143
814.379
810.56
803.956
801.925
809.988
814.418
817.672
820.313
822.569
824.557
826.348
827.985
829.499
830.911
832.239
833.494
834.685
835.821
836.909
837.952
838.955
839.923
840.858
841.763
842.64
843.492
844.319
845.124
845.909
846.673
847.42
848.148
848.861
849.558
850.24
850.908
851.562
852.204
852.833
853.451
854.058
854.653
855.239
855.814
856.38
856.937
857.484
813.645
810.364
805.128
796.392
807.384
812.172
815.559
818.267
820.565
822.583
824.399
826.057
827.592
829.024
830.371
831.645
832.857
834.012
835.119
836.183
837.206
838.194
839.149
840.074
840.972
841.843
842.691
843.516
844.321
845.106
845.872
846.62
847.352
848.068
848.77
849.457
850.13
850.79
851.438
852.074
852.699
853.312
853.915
854.508
855.091
855.665
856.229
856.785
857.332
857.871
803.377
808.864
812.461
815.266
817.622
819.682
821.531
823.221
824.784
826.245
827.621
828.924
830.164
831.35
832.486
833.58
834.634
835.652
836.638
837.593
838.521
839.423
840.301
841.157
841.991
842.806
843.601
844.379
845.14
845.885
846.615
847.33
848.031
848.719
849.394
850.057
850.708
851.347
851.976
852.594
853.202
853.8
854.389
854.969
855.539
856.101
856.655
857.201
857.739
858.269
817.001
818.666
820.223
821.691
823.083
824.411
825.681
826.902
828.078
829.213
830.311
831.375
832.409
833.413
834.39
835.342
836.27
837.176
838.061
838.925
839.771
840.598
841.409
842.203
842.981
843.744
844.492
845.227
845.948
846.656
847.352
848.036
848.708
849.369
850.019
850.659
851.289
851.909
852.519
853.12
853.712
854.296
854.871
855.437
855.996
856.547
857.091
857.627
858.156
858.678
823.066
824.058
825.047
826.031
827.007
827.974
828.931
829.875
830.807
831.727
832.633
833.525
834.404
835.27
836.122
836.961
837.786
838.599
839.398
840.185
840.96
841.723
842.473
843.213
843.94
844.657
845.362
846.057
846.742
847.416
848.081
848.736
849.381
850.017
850.644
851.262
851.872
852.473
853.066
853.651
854.228
854.797
855.359
855.914
856.461
857.001
857.535
858.062
858.582
859.096
827.264
827.95
828.658
829.383
830.121
830.869
831.625
832.386
833.149
833.914
834.679
835.442
836.202
836.958
837.71
838.457
839.197
839.931
840.659
841.379
842.093
842.798
843.496
844.187
844.87
845.544
846.211
846.87
847.521
848.165
848.8
849.428
850.049
850.661
851.267
851.865
852.455
853.039
853.615
854.185
854.748
855.304
855.853