/*--------------------------------*- C++ -*----------------------------------*\
| =========                 |                                                 |
| \\      /  F ield         | OpenFOAM: The Open Source CFD Toolbox           |
|  \\    /   O peration     | Version:  2.3.1                                 |
|   \\  /    A nd           | Web:      www.OpenFOAM.org                      |
|    \\/     M anipulation  |                                                 |
\*---------------------------------------------------------------------------*/
FoamFile
{
    version     2.0;
    format      ascii;
    class       volScalarField;
    location    "0";
    object      S;
}
// * * * * * * * * * * * * * * * * * * * * * * * * * * * * * * * * * * * * * //

dimensions      [0 0 0 0 0 0 0];

internalField   nonuniform List<scalar> 
200000
(
0.0154616
0.0152735
0.0150782
0.0148749
0.0146629
0.0144414
0.0142091
0.0139648
0.013707
0.0134338
0.0131428
0.012831
0.0124947
0.0121288
0.0117264
0.0112778
0.0107681
0.0101736
0.0094517
0.00851157
0.00708261
0.003833
0.00736861
0.00868149
0.0095771
0.0102747
0.0108537
0.0113525
0.0117931
0.0121892
0.01255
0.0128822
0.0131905
0.0134786
0.0137493
0.0140049
0.0142472
0.0144778
0.0146979
0.0149084
0.0151105
0.0153047
0.0154918
0.0156724
0.0158469
0.0160159
0.0161796
0.0163386
0.016493
0.0166432
0.0154357
0.0152476
0.0150522
0.0148489
0.0146368
0.014415
0.0141824
0.0139378
0.0136794
0.0134055
0.0131136
0.0128007
0.012463
0.0120953
0.0116905
0.0112387
0.0107246
0.0101236
0.00939111
0.00843076
0.00694449
0.00447459
0.00747841
0.00874745
0.00962505
0.0103126
0.010885
0.0113792
0.0118163
0.0122097
0.0125684
0.0128988
0.0132056
0.0134924
0.0137621
0.0140167
0.0142583
0.0144881
0.0147076
0.0149176
0.0151191
0.0153129
0.0154996
0.0156798
0.015854
0.0160227
0.0161861
0.0163448
0.016499
0.016649
0.0153836
0.0151957
0.0150003
0.0147968
0.0145844
0.0143622
0.0141289
0.0138834
0.0136239
0.0133485
0.0130548
0.0127397
0.012399
0.0120276
0.011618
0.0111596
0.0106363
0.0100216
0.00926669
0.00826231
0.00664145
0.00526751
0.007684
0.00887473
0.00971863
0.0103869
0.0109467
0.0114318
0.0118622
0.0122503
0.0126048
0.0129317
0.0132356
0.0135199
0.0137875
0.0140403
0.0142802
0.0145087
0.0147269
0.0149358
0.0151363
0.0153292
0.0155151
0.0156946
0.0158681
0.0160362
0.0161991
0.0163573
0.016511
0.0166606
0.0153054
0.0151176
0.0149221
0.0147184
0.0145055
0.0142824
0.0140482
0.0138012
0.01354
0.0132624
0.0129658
0.0126471
0.0123019
0.0119245
0.0115072
0.0110383
0.0105003
0.00986338
0.00907115
0.00798994
0.00609293
0.00602846
0.00796328
0.00905519
0.00985357
0.010495
0.0110369
0.0115092
0.0119298
0.0123103
0.0126586
0.0129804
0.0132801
0.0135608
0.0138252
0.0140754
0.0143129
0.0145393
0.0147556
0.0149629
0.0151619
0.0153535
0.0155382
0.0157166
0.0158892
0.0160563
0.0162185
0.0163759
0.016529
0.0166779
0.0152007
0.0150129
0.0148173
0.0146131
0.0143994
0.0141753
0.0139395
0.0136906
0.0134268
0.013146
0.0128454
0.0125215
0.0121698
0.0117841
0.0113556
0.0108716
0.0103119
0.00964156
0.00879115
0.00758001
0.00500356
0.00672917
0.0082932
0.00927884
0.0100243
0.0106334
0.0111532
0.0116095
0.0120178
0.0123885
0.0127289
0.0130443
0.0133384
0.0136145
0.0138749
0.0141215
0.014356
0.0145796
0.0147935
0.0149987
0.0151958
0.0153856
0.0155688
0.0157458
0.015917
0.016083
0.0162441
0.0164006
0.0165528
0.0167009
0.015069
0.0148812
0.0146852
0.0144803
0.0142655
0.0140398
0.013802
0.0135504
0.0132831
0.012998
0.0126919
0.0123611
0.0120005
0.0116032
0.0111594
0.0106541
0.0100634
0.00934382
0.00840247
0.00695679
0.00417652
0.00737282
0.0086542
0.00953549
0.0102246
0.0107979
0.0112928
0.0117304
0.0121244
0.0124837
0.0128148
0.0131223
0.0134099
0.0136803
0.0139359
0.0141783
0.014409
0.0146294
0.0148404
0.0150429
0.0152377
0.0154254
0.0156066
0.0157819
0.0159516
0.0161162
0.0162759
0.0164312
0.0165823
0.0167294
0.0149098
0.0147217
0.0145251
0.0143191
0.0141027
0.0138749
0.0136342
0.013379
0.0131072
0.0128162
0.0125029
0.0121628
0.0117903
0.0113775
0.0109126
0.0103778
0.00974267
0.00894917
0.00785759
0.00589064
0.00612748
0.00796709
0.00903161
0.00981583
0.0104484
0.0109843
0.0114523
0.0118697
0.0122478
0.0125943
0.0129148
0.0132136
0.0134937
0.0137577
0.0140076
0.0142451
0.0144716
0.0146881
0.0148957
0.0150952
0.0152872
0.0154725
0.0156515
0.0158247
0.0159926
0.0161555
0.0163137
0.0164676
0.0166174
0.0167634
0.014722
0.0145334
0.0143357
0.0141282
0.0139096
0.0136789
0.0134344
0.0131744
0.0128965
0.012598
0.012275
0.0119227
0.0115344
0.0111005
0.0106067
0.0100301
0.00932968
0.0084188
0.00704421
0.0032147
0.0071973
0.00851911
0.00941515
0.010112
0.0106901
0.0111883
0.0116286
0.0120247
0.0123859
0.0127187
0.0130278
0.0133168
0.0135887
0.0138456
0.0140893
0.0143214
0.0145431
0.0147553
0.0149591
0.0151552
0.0153442
0.0155267
0.0157032
0.0158741
0.0160399
0.0162009
0.0163574
0.0165097
0.016658
0.0168027
0.0145044
0.0143148
0.0141156
0.0139058
0.0136842
0.0134495
0.0132
0.0129337
0.0126479
0.0123393
0.0120036
0.011635
0.0112253
0.0107625
0.0102281
0.00959056
0.00878822
0.007669
0.00554144
0.00630765
0.00801088
0.0090347
0.00979796
0.0104175
0.0109444
0.011406
0.0118186
0.012193
0.0125367
0.012855
0.0131521
0.0134309
0.0136939
0.0139432
0.0141803
0.0144065
0.0146229
0.0148305
0.0150302
0.0152225
0.0154081
0.0155875
0.0157613
0.0159297
0.0160932
0.0162521
0.0164067
0.0165572
0.0167039
0.0168471
0.0142552
0.014064
0.0138624
0.0136494
0.0134237
0.0131837
0.0129276
0.0126528
0.0123565
0.0120346
0.0116819
0.0112912
0.0108521
0.0103487
0.00975485
0.00902236
0.00804293
0.00644921
0.00521075
0.00753078
0.00869162
0.00951849
0.0101756
0.0107276
0.0112073
0.0116338
0.0120193
0.0123721
0.0126982
0.0130018
0.0132864
0.0135545
0.0138084
0.0140496
0.0142796
0.0144996
0.0147105
0.0149131
0.0151083
0.0152966
0.0154786
0.0156547
0.0158255
0.0159912
0.0161522
0.0163088
0.0164613
0.0166099
0.0167549
0.0168965
0.0139717
0.013778
0.0135731
0.0133557
0.0131244
0.0128773
0.0126122
0.0123262
0.0120157
0.0116759
0.0113
0.0108787
0.0103976
0.00983404
0.00914689
0.00824929
0.0068842
0.0035237
0.00711942
0.00840821
0.0092877
0.00997415
0.0105452
0.0110384
0.0114752
0.0118688
0.0122283
0.0125599
0.0128684
0.0131572
0.0134292
0.0136865
0.0139309
0.0141638
0.0143865
0.0146
0.0148051
0.0150025
0.015193
0.0153771
0.0155552
0.0157279
0.0158955
0.0160583
0.0162166
0.0163708
0.0165211
0.0166677
0.0168108
0.0169506
0.0136504
0.0134531
0.0132434
0.0130199
0.0127809
0.0125241
0.0122469
0.0119457
0.0116159
0.0112511
0.0108425
0.0103768
0.00983262
0.0091727
0.00831997
0.00706042
0.00355598
0.00683534
0.00820981
0.00912046
0.00982332
0.0104047
0.0109051
0.0113473
0.0117452
0.0121083
0.012443
0.0127542
0.0130455
0.0133198
0.0135792
0.0138256
0.0140604
0.0142849
0.0145001
0.0147069
0.014906
0.0150981
0.0152837
0.0154634
0.0156376
0.0158066
0.0159709
0.0161306
0.0162862
0.0164379
0.0165858
0.0167302
0.0168714
0.0170093
0.0132863
0.0130838
0.0128673
0.0126353
0.0123856
0.0121154
0.0118214
0.011499
0.0111418
0.0107412
0.0102841
0.00974956
0.00910105
0.00826348
0.00703008
0.00376309
0.00673901
0.00811922
0.00902985
0.00973196
0.0103126
0.0108125
0.0112543
0.0116521
0.0120151
0.01235
0.0126615
0.0129533
0.013228
0.0134881
0.0137351
0.0139707
0.014196
0.014412
0.0146196
0.0148197
0.0150127
0.0151993
0.01538
0.0155551
0.0157252
0.0158904
0.0160513
0.0162079
0.0163606
0.0165096
0.0166551
0.0167973
0.0169364
0.0170724
0.0128723
0.0126621
0.012436
0.012192
0.0119272
0.0116381
0.0113201
0.0109668
0.010569
0.0101134
0.00957802
0.00892421
0.00807069
0.00678282
0.00242624
0.00685664
0.00814884
0.00902405
0.00970615
0.0102737
0.0107645
0.0111995
0.0115922
0.0119513
0.0122832
0.0125923
0.0128822
0.0131555
0.0134144
0.0136607
0.0138957
0.0141206
0.0143365
0.0145441
0.0147442
0.0149375
0.0151244
0.0153055
0.0154811
0.0156517
0.0158175
0.015979
0.0161363
0.0162897
0.0164395
0.0165858
0.0167288
0.0168687
0.0170056
0.0171397
0.0123976
0.0121763
0.0119363
0.0116747
0.0113879
0.0110709
0.0107168
0.0103157
0.00985271
0.00930327
0.00862221
0.00770909
0.006231
0.00483361
0.0071592
0.0082953
0.00910393
0.00974785
0.0102904
0.0107633
0.0111851
0.0115676
0.0119187
0.0122441
0.012548
0.0128336
0.0131034
0.0133595
0.0136034
0.0138365
0.0140599
0.0142745
0.0144811
0.0146805
0.0148732
0.0150597
0.0152405
0.015416
0.0155866
0.0157526
0.0159143
0.0160719
0.0162256
0.0163758
0.0165225
0.0166661
0.0168065
0.016944
0.0170788
0.0172109
0.0118458
0.0116078
0.0113468
0.0110587
0.010738
0.0103767
0.00996352
0.00948043
0.00889673
0.00815211
0.00709475
0.00498488
0.00604021
0.00758564
0.00854101
0.00926281
0.00985443
0.0103616
0.010809
0.0112116
0.011579
0.011918
0.0122336
0.0125295
0.0128085
0.0130727
0.0133241
0.0135641
0.0137938
0.0140144
0.0142266
0.0144313
0.014629
0.0148203
0.0150057
0.0151856
0.0153604
0.0155304
0.015696
0.0158574
0.0160149
0.0161686
0.0163188
0.0164657
0.0166094
0.0167502
0.016888
0.0170232
0.0171557
0.0172858
0.0111897
0.0109252
0.0106305
0.0102989
0.00992062
0.00948097
0.00895561
0.00829959
0.00741202
0.00595014
0.00483898
0.00698907
0.00807833
0.00886121
0.00948842
0.0100193
0.0104839
0.0108997
0.0112778
0.0116259
0.0119493
0.0122521
0.0125373
0.0128072
0.0130639
0.0133088
0.0135432
0.0137682
0.0139847
0.0141935
0.0143951
0.0145902
0.0147793
0.0149628
0.0151411
0.0153146
0.0154835
0.0156481
0.0158088
0.0159656
0.0161189
0.0162688
0.0164155
0.0165591
0.0166998
0.0168378
0.016973
0.0171058
0.0172361
0.0173641
0.0103791
0.0100686
0.00971329
0.00929951
0.00880497
0.00818911
0.0073637
0.00605091
0.00416452
0.00667292
0.00780145
0.00859774
0.00923131
0.00976594
0.0102332
0.0106512
0.0110313
0.0113813
0.0117067
0.0120115
0.0122987
0.0125709
0.0128297
0.0130769
0.0133136
0.013541
0.0137599
0.0139711
0.0141752
0.0143728
0.0145644
0.0147505
0.0149313
0.0151073
0.0152788
0.015446
0.0156092
0.0157686
0.0159244
0.0160768
0.016226
0.0163721
0.0165153
0.0166557
0.0167934
0.0169286
0.0170613
0.0171917
0.0173198
0.0174458
0.00930357
0.00889659
0.00840348
0.00777811
0.00691395
0.00541987
0.00496048
0.00678469
0.0077868
0.00852313
0.00912059
0.00963093
0.0100808
0.0104859
0.0108563
0.0111988
0.0115184
0.0118187
0.0121026
0.0123722
0.0126293
0.0128752
0.0131113
0.0133383
0.0135573
0.0137688
0.0139735
0.014172
0.0143646
0.0145518
0.014734
0.0149114
0.0150844
0.0152533
0.0154182
0.0155794
0.015737
0.0158913
0.0160425
0.0161905
0.0163357
0.0164781
0.0166179
0.0167551
0.0168899
0.0170223
0.0171525
0.0172806
0.0174065
0.0175304
0.00761192
0.00686963
0.00568513
0.00370859
0.00619549
0.00727876
0.00804498
0.00865767
0.0091775
0.00963425
0.0100449
0.0104202
0.0107674
0.0110915
0.0113962
0.0116845
0.0119585
0.01222
0.0124705
0.012711
0.0129426
0.0131661
0.0133822
0.0135915
0.0137945
0.0139917
0.0141835
0.0143702
0.0145522
0.0147298
0.0149031
0.0150725
0.0152381
0.0154001
0.0155588
0.0157142
0.0158665
0.0160159
0.0161625
0.0163064
0.0164477
0.0165865
0.0167229
0.016857
0.016989
0.0171187
0.0172464
0.0173722
0.017496
0.0176179
0.00528886
0.00653033
0.00734408
0.00797883
0.00851176
0.00897788
0.00939624
0.00977846
0.0101322
0.0104627
0.010774
0.0110688
0.0113494
0.0116176
0.0118748
0.0121221
0.0123606
0.0125909
0.0128139
0.0130301
0.0132401
0.0134442
0.0136428
0.0138364
0.0140252
0.0142094
0.0143895
0.0145654
0.0147376
0.0149062
0.0150713
0.015233
0.0153917
0.0155473
0.0157
0.0158499
0.0159972
0.0161419
0.0162841
0.016424
0.0165616
0.0166969
0.0168301
0.0169612
0.0170903
0.0172175
0.0173428
0.0174663
0.017588
0.0177079
0.00837121
0.00874806
0.00910032
0.00943236
0.00974734
0.0100476
0.0103351
0.0106113
0.0108773
0.0111341
0.0113826
0.0116234
0.0118572
0.0120844
0.0123054
0.0125208
0.0127308
0.0129357
0.0131359
0.0133315
0.0135228
0.0137101
0.0138934
0.014073
0.014249
0.0144217
0.014591
0.0147572
0.0149203
0.0150806
0.015238
0.0153927
0.0155448
0.0156944
0.0158415
0.0159862
0.0161287
0.0162689
0.016407
0.016543
0.016677
0.016809
0.0169391
0.0170673
0.0171937
0.0173184
0.0174413
0.0175626
0.0176823
0.0178004
0.00974352
0.00996786
0.0101917
0.0104143
0.0106352
0.0108539
0.0110703
0.011284
0.0114949
0.0117028
0.0119078
0.0121097
0.0123086
0.0125045
0.0126972
0.012887
0.0130738
0.0132576
0.0134385
0.0136166
0.0137919
0.0139644
0.0141343
0.0143015
0.0144661
0.0146282
0.0147879
0.0149451
0.0151
0.0152526
0.0154029
0.0155511
0.0156971
0.015841
0.0159828
0.0161227
0.0162606
0.0163966
0.0165308
0.0166631
0.0167936
0.0169224
0.0170496
0.017175
0.0172989
0.0174211
0.0175418
0.017661
0.0177787
0.017895
0.0106932
0.0108485
0.0110086
0.0111726
0.0113395
0.0115088
0.0116798
0.0118519
0.0120248
0.0121978
0.0123708
0.0125434
0.0127154
0.0128865
0.0130566
0.0132255
0.013393
0.0135591
0.0137237
0.0138867
0.0140481
0.0142078
0.0143657
0.0145219
0.0146764
0.014829
0.0149799
0.015129
0.0152763
0.0154219
0.0155657
0.0157077
0.0158481
0.0159867
0.0161237
0.016259
0.0163926
0.0165246
0.0166551
0.0167839
0.0169112
0.017037
0.0171613
0.0172841
0.0174055
0.0175255
0.017644
0.0177612
0.0178771
0.0179916
0.0114324
0.0115474
0.0116687
0.0117955
0.0119272
0.012063
0.0122024
0.0123448
0.0124896
0.0126365
0.0127851
0.0129348
0.0130854
0.0132366
0.0133881
0.0135397
0.0136912
0.0138423
0.0139929
0.0141429
0.0142922
0.0144406
0.0145881
0.0147345
0.0148798
0.015024
0.0151669
0.0153086
0.0154491
0.0155882
0.015726
0.0158625
0.0159976
0.0161313
0.0162637
0.0163947
0.0165244
0.0166527
0.0167796
0.0169052
0.0170295
0.0171525
0.0172741
0.0173944
0.0175135
0.0176313
0.0177478
0.0178631
0.0179771
0.01809
0.0120415
0.0121298
0.0122248
0.0123259
0.0124325
0.0125441
0.0126602
0.0127802
0.0129038
0.0130304
0.0131596
0.013291
0.0134244
0.0135593
0.0136954
0.0138325
0.0139704
0.0141087
0.0142474
0.0143861
0.0145249
0.0146634
0.0148015
0.0149393
0.0150765
0.015213
0.0153488
0.0154839
0.015618
0.0157513
0.0158836
0.016015
0.0161452
0.0162745
0.0164027
0.0165297
0.0166557
0.0167805
0.0169042
0.0170268
0.0171482
0.0172685
0.0173876
0.0175056
0.0176225
0.0177382
0.0178528
0.0179663
0.0180787
0.01819
0.0125603
0.0126296
0.0127055
0.0127877
0.0128756
0.0129689
0.0130672
0.0131699
0.0132767
0.0133871
0.0135008
0.0136174
0.0137366
0.013858
0.0139813
0.0141062
0.0142325
0.0143599
0.0144882
0.0146172
0.0147466
0.0148765
0.0150065
0.0151365
0.0152664
0.0153962
0.0155256
0.0156546
0.0157831
0.015911
0.0160384
0.016165
0.0162909
0.016416
0.0165403
0.0166637
0.0167863
0.0169079
0.0170286
0.0171483
0.0172671
0.0173849
0.0175017
0.0176175
0.0177323
0.0178462
0.017959
0.0180708
0.0181816
0.0182914
0.0130118
0.0130668
0.0131283
0.013196
0.0132696
0.0133486
0.0134328
0.0135218
0.0136151
0.0137125
0.0138135
0.0139179
0.0140253
0.0141354
0.0142478
0.0143624
0.0144788
0.0145968
0.0147162
0.0148367
0.0149581
0.0150803
0.0152031
0.0153263
0.0154498
0.0155734
0.0156971
0.0158207
0.0159441
0.0160672
0.01619
0.0163124
0.0164343
0.0165556
0.0166764
0.0167965
0.0169159
0.0170346
0.0171525
0.0172696
0.017386
0.0175015
0.0176161
0.0177299
0.0178429
0.0179549
0.0180661
0.0181763
0.0182857
0.0183941
0.0134105
0.0134544
0.0135047
0.0135611
0.0136233
0.013691
0.0137639
0.0138417
0.0139241
0.0140107
0.0141013
0.0141955
0.0142931
0.0143936
0.0144969
0.0146027
0.0147106
0.0148205
0.0149321
0.0150453
0.0151597
0.0152752
0.0153916
0.0155088
0.0156266
0.0157448
0.0158634
0.0159821
0.016101
0.0162198
0.0163385
0.0164571
0.0165753
0.0166932
0.0168108
0.0169278
0.0170444
0.0171604
0.0172758
0.0173906
0.0175047
0.0176181
0.0177308
0.0178427
0.0179539
0.0180643
0.0181739
0.0182827
0.0183907
0.0184979
0.0137661
0.0138013
0.0138427
0.01389
0.013943
0.0140016
0.0140653
0.014134
0.0142074
0.0142852
0.014367
0.0144527
0.014542
0.0146345
0.01473
0.0148282
0.0149289
0.0150319
0.0151368
0.0152435
0.0153518
0.0154615
0.0155724
0.0156842
0.015797
0.0159104
0.0160245
0.0161389
0.0162537
0.0163686
0.0164837
0.0165988
0.0167138
0.0168286
0.0169433
0.0170576
0.0171716
0.0172851
0.0173983
0.0175109
0.017623
0.0177345
0.0178454
0.0179556
0.0180652
0.0181742
0.0182824
0.0183899
0.0184967
0.0186027
0.0140857
0.0141139
0.0141481
0.014188
0.0142336
0.0142846
0.0143409
0.014402
0.014468
0.0145383
0.0146129
0.0146915
0.0147737
0.0148594
0.0149483
0.0150401
0.0151346
0.0152316
0.0153307
0.0154319
0.0155349
0.0156395
0.0157455
0.0158527
0.0159611
0.0160703
0.0161803
0.016291
0.0164021
0.0165137
0.0166255
0.0167375
0.0168496
0.0169617
0.0170738
0.0171856
0.0172973
0.0174087
0.0175198
0.0176305
0.0177407
0.0178505
0.0179598
0.0180686
0.0181767
0.0182843
0.0183913
0.0184977
0.0186033
0.0187084
0.0143744
0.0143969
0.0144252
0.0144592
0.0144986
0.0145435
0.0145935
0.0146484
0.0147081
0.0147723
0.0148408
0.0149134
0.0149897
0.0150697
0.0151529
0.0152392
0.0153284
0.0154202
0.0155145
0.0156109
0.0157093
0.0158095
0.0159112
0.0160145
0.0161189
0.0162245
0.016331
0.0164383
0.0165463
0.0166549
0.0167638
0.0168732
0.0169827
0.0170924
0.0172021
0.0173119
0.0174215
0.0175309
0.0176402
0.0177492
0.0178578
0.0179661
0.018074
0.0181814
0.0182883
0.0183947
0.0185006
0.0186059
0.0187106
0.0188147
0.0146362
0.014654
0.0146774
0.0147065
0.0147409
0.0147806
0.0148254
0.0148752
0.0149297
0.0149888
0.0150522
0.0151197
0.0151911
0.0152662
0.0153447
0.0154264
0.015511
0.0155985
0.0156885
0.0157808
0.0158752
0.0159717
0.0160698
0.0161695
0.0162707
0.0163731
0.0164766
0.016581
0.0166862
0.0167922
0.0168987
0.0170056
0.0171129
0.0172205
0.0173283
0.0174361
0.017544
0.0176517
0.0177594
0.0178669
0.0179741
0.0180811
0.0181877
0.0182939
0.0183997
0.0185051
0.01861
0.0187144
0.0188183
0.0189216
0.014874
0.0148879
0.0149074
0.0149324
0.0149627
0.0149981
0.0150387
0.0150842
0.0151344
0.0151892
0.0152483
0.0153116
0.0153789
0.0154499
0.0155243
0.0156021
0.015683
0.0157668
0.0158532
0.015942
0.0160331
0.0161263
0.0162214
0.0163182
0.0164165
0.0165161
0.016617
0.016719
0.0168219
0.0169256
0.01703
0.0171349
0.0172403
0.0173461
0.0174521
0.0175583
0.0176646
0.017771
0.0178773
0.0179835
0.0180895
0.0181953
0.0183009
0.0184061
0.018511
0.0186155
0.0187196
0.0188232
0.0189263
0.0190289
0.0150902
0.0151011
0.0151173
0.0151389
0.0151657
0.0151978
0.0152348
0.0152768
0.0153234
0.0153747
0.0154303
0.0154901
0.0155539
0.0156215
0.0156926
0.0157672
0.0158448
0.0159255
0.0160089
0.0160949
0.0161832
0.0162737
0.0163662
0.0164605
0.0165564
0.0166538
0.0167525
0.0168524
0.0169533
0.0170551
0.0171577
0.0172609
0.0173647
0.017469
0.0175736
0.0176784
0.0177835
0.0178886
0.0179938
0.0180989
0.0182039
0.0183088
0.0184134
0.0185178
0.0186219
0.0187257
0.0188291
0.0189321
0.0190346
0.0191367
0.0152869
0.0152952
0.0153087
0.0153276
0.0153517
0.0153809
0.015415
0.0154541
0.0154979
0.0155462
0.0155989
0.0156559
0.0157168
0.0157816
0.0158501
0.0159219
0.015997
0.0160751
0.0161561
0.0162397
0.0163257
0.016414
0.0165043
0.0165966
0.0166905
0.016786
0.016883
0.0169811
0.0170804
0.0171807
0.0172818
0.0173837
0.0174862
0.0175892
0.0176926
0.0177964
0.0179004
0.0180045
0.0181087
0.018213
0.0183172
0.0184213
0.0185252
0.018629
0.0187325
0.0188356
0.0189385
0.019041
0.019143
0.0192447
0.0154656
0.0154718
0.0154832
0.0154999
0.0155217
0.0155486
0.0155804
0.0156171
0.0156586
0.0157046
0.015755
0.0158096
0.0158683
0.0159309
0.0159972
0.0160669
0.0161399
0.016216
0.016295
0.0163767
0.0164609
0.0165474
0.016636
0.0167266
0.016819
0.0169131
0.0170086
0.0171054
0.0172034
0.0173025
0.0174024
0.0175032
0.0176047
0.0177067
0.0178092
0.0179121
0.0180153
0.0181186
0.0182222
0.0183257
0.0184293
0.0185328
0.0186362
0.0187395
0.0188425
0.0189452
0.0190477
0.0191498
0.0192515
0.0193528
0.0156276
0.0156321
0.0156418
0.0156567
0.0156768
0.0157019
0.0157319
0.0157668
0.0158064
0.0158506
0.0158992
0.0159521
0.016009
0.0160698
0.0161344
0.0162025
0.0162739
0.0163484
0.0164259
0.0165061
0.0165889
0.016674
0.0167614
0.0168508
0.016942
0.0170349
0.0171293
0.0172251
0.0173222
0.0174203
0.0175195
0.0176194
0.0177201
0.0178214
0.0179233
0.0180255
0.0181281
0.018231
0.018334
0.0184371
0.0185402
0.0186433
0.0187464
0.0188493
0.0189519
0.0190544
0.0191566
0.0192584
0.01936
0.0194611
0.0157741
0.0157773
0.0157856
0.0157992
0.0158179
0.0158416
0.0158703
0.0159038
0.015942
0.0159848
0.0160321
0.0160836
0.0161392
0.0161988
0.0162621
0.016329
0.0163992
0.0164726
0.016549
0.0166282
0.01671
0.0167942
0.0168806
0.0169691
0.0170595
0.0171516
0.0172453
0.0173405
0.0174369
0.0175344
0.0176329
0.0177324
0.0178326
0.0179334
0.0180348
0.0181367
0.0182389
0.0183414
0.0184441
0.018547
0.0186498
0.0187527
0.0188555
0.0189582
0.0190608
0.0191631
0.0192651
0.0193669
0.0194683
0.0195693
0.0159058
0.015908
0.0159154
0.015928
0.0159457
0.0159684
0.0159961
0.0160286
0.0160659
0.0161078
0.0161541
0.0162047
0.0162595
0.0163182
0.0163807
0.0164468
0.0165162
0.0165889
0.0166646
0.0167431
0.0168243
0.0169079
0.0169938
0.0170818
0.0171717
0.0172634
0.0173567
0.0174514
0.0175474
0.0176447
0.0177429
0.0178421
0.017942
0.0180426
0.0181438
0.0182455
0.0183476
0.01845
0.0185526
0.0186553
0.0187581
0.0188609
0.0189637
0.0190664
0.0191689
0.0192712
0.0193732
0.019475
0.0195764
0.0196775
0.0160236
0.0160252
0.0160319
0.0160438
0.0160609
0.0160829
0.01611
0.0161419
0.0161786
0.01622
0.0162658
0.0163159
0.0163701
0.0164284
0.0164904
0.0165561
0.0166252
0.0166975
0.0167729
0.0168511
0.016932
0.0170154
0.0171011
0.0171889
0.0172787
0.0173702
0.0174634
0.017558
0.017654
0.0177511
0.0178494
0.0179485
0.0180484
0.0181491
0.0182503
0.0183521
0.0184542
0.0185566
0.0186593
0.0187621
0.018865
0.0189679
0.0190708
0.0191736
0.0192762
0.0193787
0.0194808
0.0195828
0.0196843
0.0197856
0.0161281
0.0161293
0.0161356
0.0161472
0.0161639
0.0161857
0.0162125
0.0162441
0.0162806
0.0163217
0.0163673
0.0164173
0.0164715
0.0165296
0.0165916
0.0166573
0.0167263
0.0167987
0.0168741
0.0169524
0.0170334
0.0171169
0.0172026
0.0172906
0.0173805
0.0174722
0.0175655
0.0176604
0.0177565
0.0178539
0.0179523
0.0180517
0.0181519
0.0182528
0.0183543
0.0184562
0.0185586
0.0186613
0.0187642
0.0188673
0.0189705
0.0190737
0.0191768
0.0192799
0.0193828
0.0194855
0.0195879
0.0196901
0.0197919
0.0198934
0.0162199
0.0162209
0.0162271
0.0162386
0.0162553
0.016277
0.0163039
0.0163356
0.0163722
0.0164134
0.0164592
0.0165094
0.0165638
0.0166222
0.0166845
0.0167504
0.0168199
0.0168926
0.0169683
0.017047
0.0171284
0.0172123
0.0172985
0.0173869
0.0174773
0.0175694
0.0176632
0.0177585
0.0178552
0.017953
0.0180519
0.0181517
0.0182524
0.0183537
0.0184557
0.0185581
0.0186609
0.0187641
0.0188674
0.018971
0.0190746
0.0191782
0.0192817
0.0193852
0.0194885
0.0195916
0.0196944
0.019797
0.0198992
0.020001
0.0162994
0.0163005
0.0163068
0.0163185
0.0163353
0.0163574
0.0163845
0.0164167
0.0164536
0.0164953
0.0165416
0.0165923
0.0166473
0.0167063
0.0167692
0.0168358
0.0169059
0.0169793
0.0170558
0.0171352
0.0172173
0.0173019
0.0173889
0.017478
0.0175691
0.017662
0.0177565
0.0178526
0.0179499
0.0180485
0.0181481
0.0182486
0.0183499
0.0184519
0.0185545
0.0186576
0.0187611
0.0188649
0.0189688
0.019073
0.0191771
0.0192813
0.0193855
0.0194895
0.0195933
0.0196969
0.0198003
0.0199033
0.020006
0.0201084
0.016367
0.0163683
0.016375
0.0163871
0.0164045
0.016427
0.0164548
0.0164876
0.0165253
0.0165677
0.0166148
0.0166664
0.0167223
0.0167822
0.0168461
0.0169136
0.0169847
0.0170591
0.0171366
0.017217
0.0173002
0.0173858
0.0174738
0.017564
0.0176561
0.01775
0.0178455
0.0179425
0.0180408
0.0181403
0.0182409
0.0183423
0.0184445
0.0185474
0.0186509
0.0187548
0.0188591
0.0189637
0.0190685
0.0191733
0.0192783
0.0193832
0.019488
0.0195927
0.0196972
0.0198015
0.0199054
0.0200091
0.0201124
0.0202153
0.016423
0.0164248
0.0164321
0.0164448
0.0164628
0.0164862
0.0165149
0.0165486
0.0165873
0.0166308
0.0166791
0.0167318
0.0167888
0.01685
0.0169151
0.016984
0.0170564
0.0171321
0.0172109
0.0172927
0.0173771
0.0174641
0.0175534
0.0176449
0.0177382
0.0178334
0.0179302
0.0180284
0.018128
0.0182287
0.0183304
0.0184329
0.0185363
0.0186403
0.0187448
0.0188497
0.018955
0.0190606
0.0191663
0.0192721
0.0193779
0.0194837
0.0195893
0.0196948
0.0198001
0.0199052
0.0200099
0.0201143
0.0202183
0.0203219
0.0164676
0.0164701
0.0164781
0.0164917
0.0165107
0.0165352
0.0165649
0.0165999
0.0166399
0.0166848
0.0167344
0.0167886
0.0168472
0.0169099
0.0169766
0.017047
0.017121
0.0171984
0.0172788
0.0173622
0.0174483
0.0175369
0.0176278
0.0177208
0.0178157
0.0179124
0.0180107
0.0181104
0.0182114
0.0183135
0.0184166
0.0185205
0.0186252
0.0187304
0.0188362
0.0189423
0.0190488
0.0191555
0.0192623
0.0193692
0.019476
0.0195828
0.0196895
0.0197959
0.0199021
0.0200081
0.0201136
0.0202189
0.0203237
0.0204281
0.0165011
0.0165044
0.0165134
0.0165281
0.0165483
0.016574
0.0166052
0.0166416
0.0166832
0.0167297
0.0167811
0.016837
0.0168974
0.016962
0.0170305
0.0171029
0.0171788
0.0172581
0.0173405
0.0174257
0.0175137
0.0176042
0.017697
0.0177918
0.0178886
0.0179871
0.0180871
0.0181885
0.0182912
0.0183949
0.0184996
0.0186051
0.0187112
0.0188179
0.0189251
0.0190327
0.0191405
0.0192485
0.0193565
0.0194646
0.0195727
0.0196806
0.0197884
0.0198959
0.0200031
0.0201101
0.0202166
0.0203228
0.0204285
0.0205337
0.0165235
0.0165279
0.016538
0.016554
0.0165757
0.0166029
0.0166358
0.0166739
0.0167174
0.0167658
0.0168192
0.0168772
0.0169397
0.0170064
0.0170771
0.0171517
0.0172298
0.0173113
0.0173959
0.0174834
0.0175736
0.0176662
0.0177611
0.0178581
0.0179569
0.0180574
0.0181594
0.0182628
0.0183673
0.0184729
0.0185794
0.0186866
0.0187945
0.0189029
0.0190117
0.0191208
0.0192301
0.0193395
0.019449
0.0195585
0.0196678
0.019777
0.019886
0.0199947
0.0201031
0.0202112
0.0203188
0.020426
0.0205327
0.0206389
0.0165351
0.0165406
0.0165521
0.0165696
0.0165929
0.016622
0.0166567
0.0166969
0.0167424
0.0167931
0.0168487
0.0169091
0.016974
0.0170432
0.0171164
0.0171935
0.0172741
0.0173581
0.0174452
0.0175352
0.0176279
0.0177229
0.0178203
0.0179196
0.0180207
0.0181235
0.0182278
0.0183333
0.01844
0.0185476
0.0186561
0.0187653
0.018875
0.0189853
0.0190958
0.0192066
0.0193176
0.0194287
0.0195397
0.0196507
0.0197615
0.0198721
0.0199824
0.0200925
0.0202021
0.0203114
0.0204202
0.0205285
0.0206363
0.0207436
0.0154616
0.0152735
0.0150782
0.0148749
0.0146629
0.0144414
0.0142091
0.0139648
0.013707
0.0134338
0.0131428
0.012831
0.0124947
0.0121288
0.0117264
0.0112778
0.0107681
0.0101736
0.0094517
0.00851157
0.00708261
0.003833
0.00736861
0.00868149
0.0095771
0.0102747
0.0108537
0.0113525
0.0117931
0.0121892
0.01255
0.0128822
0.0131905
0.0134786
0.0137493
0.0140049
0.0142472
0.0144778
0.0146979
0.0149084
0.0151105
0.0153047
0.0154918
0.0156724
0.0158469
0.0160159
0.0161796
0.0163386
0.016493
0.0166432
0.0154357
0.0152476
0.0150522
0.0148489
0.0146368
0.014415
0.0141824
0.0139378
0.0136794
0.0134055
0.0131136
0.0128007
0.012463
0.0120953
0.0116905
0.0112387
0.0107246
0.0101236
0.00939111
0.00843076
0.00694449
0.00447459
0.00747841
0.00874745
0.00962505
0.0103126
0.010885
0.0113792
0.0118163
0.0122097
0.0125684
0.0128988
0.0132056
0.0134924
0.0137621
0.0140167
0.0142583
0.0144881
0.0147076
0.0149176
0.0151191
0.0153129
0.0154996
0.0156798
0.015854
0.0160227
0.0161861
0.0163448
0.016499
0.016649
0.0153836
0.0151957
0.0150003
0.0147968
0.0145844
0.0143622
0.0141289
0.0138834
0.0136239
0.0133485
0.0130548
0.0127397
0.012399
0.0120276
0.011618
0.0111596
0.0106363
0.0100216
0.00926669
0.00826231
0.00664145
0.00526751
0.007684
0.00887473
0.00971863
0.0103869
0.0109467
0.0114318
0.0118622
0.0122503
0.0126048
0.0129317
0.0132356
0.0135199
0.0137875
0.0140403
0.0142802
0.0145087
0.0147269
0.0149358
0.0151363
0.0153292
0.0155151
0.0156946
0.0158681
0.0160362
0.0161991
0.0163573
0.016511
0.0166606
0.0153054
0.0151176
0.0149221
0.0147184
0.0145055
0.0142824
0.0140482
0.0138012
0.01354
0.0132624
0.0129658
0.0126471
0.0123019
0.0119245
0.0115072
0.0110383
0.0105003
0.00986338
0.00907115
0.00798994
0.00609293
0.00602846
0.00796328
0.00905519
0.00985357
0.010495
0.0110369
0.0115092
0.0119298
0.0123103
0.0126586
0.0129804
0.0132801
0.0135608
0.0138252
0.0140754
0.0143129
0.0145393
0.0147556
0.0149629
0.0151619
0.0153535
0.0155382
0.0157166
0.0158892
0.0160563
0.0162185
0.0163759
0.016529
0.0166779
0.0152007
0.0150129
0.0148173
0.0146131
0.0143994
0.0141753
0.0139395
0.0136906
0.0134268
0.013146
0.0128454
0.0125215
0.0121698
0.0117841
0.0113556
0.0108716
0.0103119
0.00964156
0.00879115
0.00758001
0.00500356
0.00672917
0.0082932
0.00927884
0.0100243
0.0106334
0.0111532
0.0116095
0.0120178
0.0123885
0.0127289
0.0130443
0.0133384
0.0136145
0.0138749
0.0141215
0.014356
0.0145796
0.0147935
0.0149987
0.0151958
0.0153856
0.0155688
0.0157458
0.015917
0.016083
0.0162441
0.0164006
0.0165528
0.0167009
0.015069
0.0148812
0.0146852
0.0144803
0.0142655
0.0140398
0.013802
0.0135504
0.0132831
0.012998
0.0126919
0.0123611
0.0120005
0.0116032
0.0111594
0.0106541
0.0100634
0.00934382
0.00840247
0.00695679
0.00417652
0.00737282
0.0086542
0.00953549
0.0102246
0.0107979
0.0112928
0.0117304
0.0121244
0.0124837
0.0128148
0.0131223
0.0134099
0.0136803
0.0139359
0.0141783
0.014409
0.0146294
0.0148404
0.0150429
0.0152377
0.0154254
0.0156066
0.0157819
0.0159516
0.0161162
0.0162759
0.0164312
0.0165823
0.0167294
0.0149098
0.0147217
0.0145251
0.0143191
0.0141027
0.0138749
0.0136342
0.013379
0.0131072
0.0128162
0.0125029
0.0121628
0.0117903
0.0113775
0.0109126
0.0103778
0.00974267
0.00894917
0.00785759
0.00589064
0.00612748
0.00796709
0.00903161
0.00981583
0.0104484
0.0109843
0.0114523
0.0118697
0.0122478
0.0125943
0.0129148
0.0132136
0.0134937
0.0137577
0.0140076
0.0142451
0.0144716
0.0146881
0.0148957
0.0150952
0.0152872
0.0154725
0.0156515
0.0158247
0.0159926
0.0161555
0.0163137
0.0164676
0.0166174
0.0167634
0.014722
0.0145334
0.0143357
0.0141282
0.0139096
0.0136789
0.0134344
0.0131744
0.0128965
0.012598
0.012275
0.0119227
0.0115344
0.0111005
0.0106067
0.0100301
0.00932968
0.0084188
0.00704421
0.0032147
0.0071973
0.00851911
0.00941515
0.010112
0.0106901
0.0111883
0.0116286
0.0120247
0.0123859
0.0127187
0.0130278
0.0133168
0.0135887
0.0138456
0.0140893
0.0143214
0.0145431
0.0147553
0.0149591
0.0151552
0.0153442
0.0155267
0.0157032
0.0158741
0.0160399
0.0162009
0.0163574
0.0165097
0.016658
0.0168027
0.0145044
0.0143148
0.0141156
0.0139058
0.0136842
0.0134495
0.0132
0.0129337
0.0126479
0.0123393
0.0120036
0.011635
0.0112253
0.0107625
0.0102281
0.00959056
0.00878822
0.007669
0.00554144
0.00630765
0.00801088